# OOMMF OVF 2.0
#
# Segment count: 000001
#
# Begin: Segment
# Begin: Header
#
# Title: SPIRIT Version 2.2.0 (e82250d3b1441)
#
# Desc: 
#
# valuedim: 3   ## field dimensionality
# valueunits: none none none
# valuelabels: spin_x spin_y spin_z
#
## Fundamental mesh measurement unit. Treated as a label:
# meshunit: nm
#
# xmin: 0
# ymin: 0
# zmin: 0
# xmax: 5.10955
# ymax: 5.85
# zmax: 0
#
# meshtype: rectangular
# xbase: 0
# ybase: 0
# zbase: 0
# xstepsize: 0.0866025
# ystepsize: 0.1
# zstepsize: 0.1
# xnodes: 60
# ynodes: 30
# znodes: 1
#
# End: Header
#
# Begin: Data Text
        0.821482464074        0.501024103046        0.272289201742
        0.821479416589        0.501028912363        0.272289546432
        0.821477201391        0.501032557488        0.272289522259
        0.821475967520        0.501034671013        0.272289355705
        0.821475731703        0.501035167437        0.272289153685
        0.821476456411        0.501034090371        0.272288949185
        0.821478068496        0.501031556759        0.272288747677
        0.821480470578        0.501027726877        0.272288547977
        0.821483550587        0.501022785180        0.272288348716
        0.821487189424        0.501016927113        0.272288149500
        0.821491266852        0.501010349572        0.272287950722
        0.821495665911        0.501003243831        0.272287753234
        0.821500276190        0.500995790309        0.272287558130
        0.821504996162        0.500988154807        0.272287366624
        0.821509734737        0.500980486004        0.272287179969
        0.821514412135        0.500972914053        0.272286999396
        0.821518960176        0.500965550138        0.272286826062
        0.821523322051        0.500958486861        0.272286661017
        0.821527451697        0.500951799294        0.272286505162
        0.821531312836        0.500945546544        0.272286359239
        0.821534877820        0.500939773672        0.272286223813
        0.821538126338        0.500934513792        0.272286099286
        0.821541044107        0.500929790217        0.272285985905
        0.821543621602        0.500925618528        0.272285883784
        0.821545852883        0.500922008475        0.272285792938
        0.821547734576        0.500918965645        0.272285713305
        0.821549265002        0.500916492860        0.272285644783
        0.821550443486        0.500914591304        0.272285587253
        0.821551269832        0.500913261369        0.272285540603
        0.821551743960        0.500912503240        0.272285504745
        0.821551865688        0.500912317244        0.272285479631
        0.821551634665        0.500912703963        0.272285465251
        0.821551050430        0.500913664138        0.272285461634
        0.821550112607        0.500915198346        0.272285468840
        0.821548821237        0.500917306471        0.272285486946
        0.821547177252        0.500919986937        0.272285516024
        0.821545183088        0.500923235713        0.272285556115
        0.821542843448        0.500927045074        0.272285607207
        0.821540166208        0.500931402142        0.272285669207
        0.821537163432        0.500936287220        0.272285741908
        0.821533852494        0.500941671976        0.272285824978
        0.821530257232        0.500947517556        0.272285917936
        0.821526409092        0.500953772714        0.272286020146
        0.821522348172        0.500960372099        0.272286130825
        0.821518124088        0.500967234828        0.272286249053
        0.821513796561        0.500974263514        0.272286373799
        0.821509435634        0.500981343892        0.272286503956
        0.821505121411        0.500988345229        0.272286638380
        0.821500943221        0.500995121665        0.272286775944
        0.821496998091        0.501001514694        0.272286915590
        0.821493388369        0.501007357009        0.272287056410
        0.821490218281        0.501012478089        0.272287197767
        0.821487589043        0.501016712093        0.272287339501
        0.821485591867        0.501019909161        0.272287482231
        0.821484297661        0.501021952195        0.272287627548
        0.821483741069        0.501022783442        0.272287777233
        0.821483893631        0.501022450592        0.272287929420
        0.821484611651        0.501021196662        0.272288070462
        0.821485511183        0.501019662983        0.272288178628
        0.821485609286        0.501019415802        0.272288337477
        0.821479004009        0.501029794311        0.272289168323
        0.821474357458        0.501037184369        0.272289588343
        0.821471410190        0.501042045556        0.272289534917
        0.821469941794        0.501044566915        0.272289325340
        0.821469764753        0.501044988048        0.272289084518
        0.821470723715        0.501043545694        0.272288845527
        0.821472672652        0.501040477355        0.272288611841
        0.821475466569        0.501036022037        0.272288381035
        0.821478961237        0.501030417198        0.272288151207
        0.821483015610        0.501023894345        0.272287921803
        0.821487494668        0.501016674596        0.272287693225
        0.821492271959        0.501008964742        0.272287466404
        0.821497231605        0.501000954108        0.272287242537
        0.821502269726        0.500992812299        0.272287022937
        0.821507295272        0.500984687886        0.272286808934
        0.821512230294        0.500976707993        0.272286601811
        0.821517009702        0.500968978730        0.272286402746
        0.821521580571        0.500961586342        0.272286212773
        0.821525901099        0.500954598934        0.272286032749
        0.821529939310        0.500948068607        0.272285863343
        0.821533671603        0.500942033828        0.272285705036
        0.821537081265        0.500936521867        0.272285558128
        0.821540157017        0.500931551169        0.272285422766
        0.821542891671        0.500927133533        0.272285298969
        0.821545280949        0.500923276033        0.272285186666
        0.821547322495        0.500919982626        0.272285085723
        0.821549015076        0.500917255434        0.272284995980
        0.821550357993        0.500915095707        0.272284917274
        0.821551350665        0.500913504482        0.272284849463
        0.821551992397        0.500912482970        0.272284792438
        0.821552282286        0.500912032691        0.272284746132
        0.821552219277        0.500912155390        0.272284710519
        0.821551802350        0.500912852738        0.272284685611
        0.821551030823        0.500914125826        0.272284671441
        0.821549904792        0.500915974472        0.272284668050
        0.821548425686        0.500918396309        0.272284675464
        0.821546596950        0.500921385682        0.272284693668
        0.821544424846        0.500924932352        0.272284722584
        0.821541919355        0.500929020022        0.272284762044
        0.821539095161        0.500933624747        0.272284811770
        0.821535972673        0.500938713250        0.272284871359
        0.821532579044        0.500944241278        0.272284940272
        0.821528949106        0.500950152055        0.272285017835
        0.821525126154        0.500956374994        0.272285103249
        0.821521162497        0.500962824789        0.272285195610
        0.821517119670        0.500969401053        0.272285293942
        0.821513068217        0.500975988650        0.272285397230
        0.821509086931        0.500982458920        0.272285504470
        0.821505261431        0.500988671983        0.272285614725
        0.821501681910        0.500994480395        0.272285727191
        0.821498439807        0.500999734553        0.272285841299
        0.821495623026        0.501004290440        0.272285956871
        0.821493309019        0.501008020822        0.272286074394
        0.821491554511        0.501010831851        0.272286195455
        0.821490379531        0.501012688954        0.272286323281
        0.821489741011        0.501013659869        0.272286463194
        0.821489485521        0.501013991648        0.272286623527
        0.821489256456        0.501014258341        0.272286823896
        0.821488300943        0.501015651598        0.272287143043
        0.821485160437        0.501020406186        0.272287869298
        0.821475705538        0.501035518901        0.272288585899
        0.821470275743        0.501044229440        0.272288938843
        0.821467005235        0.501049651189        0.272288828918
        0.821465514559        0.501052229761        0.272288581182
        0.821465505327        0.501052389919        0.272288314319
        0.821466746913        0.501050494910        0.272288055682
        0.821469041771        0.501046868432        0.272287805542
        0.821472209255        0.501041808749        0.272287559956
        0.821476080426        0.501035594181        0.272287316363
        0.821480497360        0.501028484034        0.272287073956
        0.821485314000        0.501020717555        0.272286833071
        0.821490397334        0.501012512274        0.272286594662
        0.821495628424        0.501004062505        0.272286359986
        0.821500903052        0.500995538371        0.272286130418
        0.821506131905        0.500987085570        0.272285907337
        0.821511240274        0.500978825910        0.272285692047
        0.821516167282        0.500970858596        0.272285485715
        0.821520864743        0.500963262134        0.272285289328
        0.821525295705        0.500956096714        0.272285103671
        0.821529432833        0.500949406883        0.272284929316
        0.821533256701        0.500943224322        0.272284766632
        0.821536754134        0.500937570565        0.272284615805
        0.821539916656        0.500932459516        0.272284476870
        0.821542739126        0.500927899675        0.272284349745
        0.821545218585        0.500923896005        0.272284234271
        0.821547353337        0.500920451410        0.272284130245
        0.821549142269        0.500917567854        0.272284037454
        0.821550584373        0.500915247110        0.272283955697
        0.821551678474        0.500913491205        0.272283884807
        0.821552423128        0.500912302587        0.272283824657
        0.821552816661        0.500911684049        0.272283775168
        0.821552857350        0.500911638441        0.272283736301
        0.821552543722        0.500912168185        0.272283708049
        0.821551874957        0.500913274616        0.272283690421
        0.821550851410        0.500914957142        0.272283683424
        0.821549475234        0.500917212237        0.272283687039
        0.821547751093        0.500920032275        0.272283701200
        0.821545686974        0.500923404219        0.272283725771
        0.821543295058        0.500927308202        0.272283760521
        0.821540592627        0.500931716045        0.272283805114
        0.821537602970        0.500936589781        0.272283859097
        0.821534356223        0.500941880284        0.272283921895
        0.821530890081        0.500947526091        0.272283992822
        0.821527250301        0.500953452569        0.272284071095
        0.821523490923        0.500959571550        0.272284155863
        0.821519674093        0.500965781594        0.272284246240
        0.821515869393        0.500971969064        0.272284341356
        0.821512152568        0.500978010190        0.272284440409
        0.821508603457        0.500983774416        0.272284542744
        0.821505302936        0.500989129364        0.272284647947
        0.821502328505        0.500993947978        0.272284756000
        0.821499747956        0.500998118781        0.272284867530
        0.821497610127        0.501001560790        0.272284984240
        0.821495931003        0.501004245926        0.272285109601
        0.821494672025        0.501006233998        0.272285249931
        0.821493704897        0.501007729439        0.272285416165
        0.821492752916        0.501009175086        0.272285628311
        0.821491295648        0.501011399992        0.272285931058
        0.821488458570        0.501015777012        0.272286436720
        0.821483290850        0.501023779284        0.272287303133
        0.821472581908        0.501041054054        0.272287824418
        0.821466862402        0.501050286959        0.272288089924
        0.821463554657        0.501055797400        0.272287928968
        0.821462205870        0.501058159309        0.272287651791
        0.821462455002        0.501057905973        0.272287366370
        0.821464022379        0.501055484056        0.272287094506
        0.821466673883        0.501051278588        0.272286833918
        0.821470202381        0.501045631859        0.272286579536
        0.821474420298        0.501038853000        0.272286328302
        0.821479157190        0.501031221954        0.272286079207
        0.821484259301        0.501022990614        0.272285832531
        0.821489589766        0.501014382823        0.272285589243
        0.821495028849        0.501005594182        0.272285350642
        0.821500473912        0.500996792204        0.272285118146
        0.821505838989        0.500988117089        0.272284893158
        0.821511053920        0.500979683194        0.272284676972
        0.821516063066        0.500971581163        0.272284470712
        0.821520823703        0.500963880586        0.272284275290
        0.821525304185        0.500956633016        0.272284091385
        0.821529482011        0.500949875135        0.272283919446
        0.821533341917        0.500943631876        0.272283759710
        0.821536874077        0.500937919348        0.272283612234
        0.821540072515        0.500932747425        0.272283476932
        0.821542933757        0.500928121927        0.272283353618
        0.821545455761        0.500924046358        0.272283242046
        0.821547637112        0.500920523202        0.272283141950
        0.821549476475        0.500917554810        0.272283053067
        0.821550972266        0.500915143913        0.272282975169
        0.821552122532        0.500913293831        0.272282908068
        0.821552924980        0.500912008408        0.272282851626
        0.821553377154        0.500911291726        0.272282805754
        0.821553476729        0.500911147627        0.272282770402
        0.821553221907        0.500911579075        0.272282745546
        0.821552611908        0.500912587356        0.272282731174
        0.821551647547        0.500914171140        0.272282727260
        0.821550331894        0.500916325418        0.272282733744
        0.821548670999        0.500919040317        0.272282750515
        0.821546674679        0.500922299826        0.272282777384
        0.821544357326        0.500926080481        0.272282814072
        0.821541738712        0.500930350043        0.272282860201
        0.821538844744        0.500935066272        0.272282915286
        0.821535708105        0.500940175865        0.272282978741
        0.821532368727        0.500945613688        0.272283049895
        0.821528873996        0.500951302415        0.272283128013
        0.821525278621        0.500957152728        0.272283212331
        0.821521644066        0.500963064234        0.272283302102
        0.821518037412        0.500968927292        0.272283396656
        0.821514529522        0.500974625981        0.272283495474
        0.821511192296        0.500980042548        0.272283598294
        0.821508094743        0.500985063771        0.272283705260
        0.821505297389        0.500989589988        0.272283817158
        0.821502844333        0.500993547921        0.272283935799
        0.821500751761        0.500996909179        0.272284064625
        0.821498991081        0.500999717403        0.272284209631
        0.821497463946        0.501002128519        0.272284380655
        0.821495965928        0.501004469307        0.272284593208
        0.821494138387        0.501007314332        0.272284872111
        0.821491427583        0.501011548268        0.272285260177
        0.821487160880        0.501018238914        0.272285821857
        0.821480793548        0.501028221582        0.272286663298
        0.821469638855        0.501046293637        0.272287061889
        0.821463956976        0.501055506959        0.272287249676
        0.821460820628        0.501060758233        0.272287048408
        0.821459741431        0.501062690309        0.272286748832
        0.821460322018        0.501061901480        0.272286448863
        0.821462250414        0.501058893631        0.272286166116
        0.821465266635        0.501054095059        0.272285896690
        0.821469144207        0.501047880103        0.272285634876
        0.821473681977        0.501040580289        0.272285377357
        0.821478700803        0.501032489871        0.272285123025
        0.821484042285        0.501023868363        0.272284872150
        0.821489568252        0.501014941737        0.272284625731
        0.821495160336        0.501005903330        0.272284385107
        0.821500719319        0.500996915039        0.272284151725
        0.821506164112        0.500988109072        0.272283926986
        0.821511430318        0.500979590359        0.272283712148
        0.821516468432        0.500971439532        0.272283508258
        0.821521241778        0.500963716324        0.272283316114
        0.821525724310        0.500956463181        0.272283136262
        0.821529898408        0.500949708867        0.272282969002
        0.821533752796        0.500943471849        0.272282814420
        0.821537280683        0.500937763342        0.272282672430
        0.821540478179        0.500932589864        0.272282542821
        0.821543343028        0.500927955297        0.272282425302
        0.821545873658        0.500923862415        0.272282319548
        0.821548068532        0.500920313935        0.272282225234
        0.821549925762        0.500917313132        0.272282142061
        0.821551442945        0.500914864097        0.272282069776
        0.821552617194        0.500912971685        0.272282008181
        0.821553445310        0.500911641230        0.272281957131
        0.821553924079        0.500910878061        0.272281916532
        0.821554050668        0.500910686860        0.272281886326
        0.821553823101        0.500911070886        0.272281866475
        0.821553240814        0.500912031085        0.272281856945
        0.821552305266        0.500913565090        0.272281857680
        0.821551020606        0.500915666136        0.272281868586
        0.821549394386        0.500918321914        0.272281889510
        0.821547438287        0.500921513377        0.272281920224
        0.821545168841        0.500925213568        0.272281960412
        0.821542608109        0.500929386513        0.272282009669
        0.821539784257        0.500933986270        0.272282067500
        0.821536731988        0.500938956223        0.272282133333
        0.821533492746        0.500944228731        0.272282206538
        0.821530114619        0.500949725275        0.272282286462
        0.821526651850        0.500955357234        0.272282372471
        0.821523163855        0.500961027470        0.272282464005
        0.821519713605        0.500966632939        0.272282560662
        0.821516365214        0.500972068583        0.272282662293
        0.821513180498        0.500977232904        0.272282769156
        0.821510214159        0.500982035739        0.272282882127
        0.821507507092        0.500986409053        0.272283003025
        0.821505077090        0.500990321912        0.272283135110
        0.821502905931        0.500993801284        0.272283283771
        0.821500921697        0.500996960567        0.272283457362
        0.821498975765        0.501000036931        0.272283667914
        0.821496816953        0.501003433633        0.272283931263
        0.821494075375        0.501007746822        0.272284266436
        0.821490293784        0.501013714771        0.272284694446
        0.821485024770        0.501022050212        0.272285253513
        0.821477999258        0.501033146407        0.272286031476
        0.821466904584        0.501051158820        0.272286358304
        0.821461494099        0.501059962827        0.272286480319
        0.821458686182        0.501064692779        0.272286247441
        0.821457975669        0.501066029885        0.272285930419
        0.821458944464        0.501064611236        0.272285618290
        0.821461259561        0.501060974826        0.272285325618
        0.821464643068        0.501055578787        0.272285047617
        0.821468854907        0.501048819871        0.272284778354
        0.821473684683        0.501041044779        0.272284514469
        0.821478947997        0.501032556370        0.272284254877
        0.821484484674        0.501023617050        0.272283999893
        0.821490157683        0.501014450895        0.272283750570
        0.821495852124        0.501005245537        0.272283508292
        0.821501473977        0.500996154347        0.272283274519
        0.821506948475        0.500987299190        0.272283050626
        0.821512218084        0.500978773781        0.272282837799
        0.821517240187        0.500970647524        0.272282636969
        0.821521984579        0.500962969623        0.272282448792
        0.821526430930        0.500955773241        0.272282273643
        0.821530566367        0.500949079448        0.272282111649
        0.821534383286        0.500942900788        0.272281962730
        0.821537877480        0.500937244315        0.272281826651
        0.821541046635        0.500932114030        0.272281703073
        0.821543889197        0.500927512715        0.272281591608
        0.821546403591        0.500923443189        0.272281491859
        0.821548587755        0.500919909059        0.272281403453
        0.821550438933        0.500916915032        0.272281326065
        0.821551953693        0.500914466897        0.272281259429
        0.821553128104        0.500912571223        0.272281203342
        0.821553958041        0.500911234862        0.272281157659
        0.821554439590        0.500910464291        0.272281122286
        0.821554569528        0.500910264836        0.272281097159
        0.821554345859        0.500910639795        0.272281082229
        0.821553768406        0.500911589489        0.272281077442
        0.821552839429        0.500913110250        0.272281082717
        0.821551564281        0.500915193359        0.272281097930
        0.821549952068        0.500917823971        0.272281122894
        0.821548016303        0.500920980056        0.272281157352
        0.821545775506        0.500924631405        0.272281200967
        0.821543253736        0.500928738774        0.272281253323
        0.821540480972        0.500933253243        0.272281313938
        0.821537493317        0.500938115880        0.272281382275
        0.821534332921        0.500943257845        0.272281457780
        0.821531047578        0.500948601042        0.272281539916
        0.821527689867        0.500954059486        0.272281628219
        0.821524315751        0.500959541570        0.272281722376
        0.821520982480        0.500964953445        0.272281822318
        0.821517745615        0.500970203833        0.272281928360
        0.821514654923        0.500975210646        0.272282041393
        0.821511748808        0.500979909977        0.272282163152
        0.821509046830        0.500984268146        0.272282296609
        0.821506539815        0.500988297652        0.272282446474
        0.821504177171        0.500992077659        0.272282619743
        0.821501851793        0.500995778590        0.272282826004
        0.821499385162        0.500999686851        0.272283076876
        0.821496520498        0.501004217242        0.272283383839
        0.821492940333        0.501009886042        0.272283754696
        0.821488318703        0.501017223941        0.272284196288
        0.821482397360        0.501026639599        0.272284735600
        0.821475091634        0.501038230178        0.272285448978
        0.821464413711        0.501055586013        0.272285726272
        0.821459449326        0.501063689463        0.272285791431
        0.821457089949        0.501067697871        0.272285533076
        0.821456824180        0.501068313426        0.272285202112
        0.821458223159        0.501066195223        0.272284879509
        0.821460940845        0.501061903868        0.272284577527
        0.821464687572        0.501055916984        0.272284291004
        0.821469214421        0.501048645768        0.272284014097
        0.821474305579        0.501040445721        0.272283743593
        0.821479774588        0.501031623015        0.272283478534
        0.821485462243        0.501022438408        0.272283219341
        0.821491235045        0.501013110152        0.272282967149
        0.821496983623        0.501003816797        0.272282723383
        0.821502620866        0.500994700392        0.272282489501
        0.821508079672        0.500985870270        0.272282266817
        0.821513310335        0.500977407375        0.272282056408
        0.821518277708        0.500969368948        0.272281859050
        0.821522958281        0.500961793313        0.272281675214
        0.821527337367        0.500954704490        0.272281505079
        0.821531406523        0.500948116389        0.272281348576
        0.821535161331        0.500942036423        0.272281205448
        0.821538599601        0.500936468422        0.272281075307
        0.821541720003        0.500931414839        0.272280957694
        0.821544521124        0.500926878270        0.272280852134
        0.821547000898        0.500922862372        0.272280758169
        0.821549156348        0.500919372267        0.272280675393
        0.821550983576        0.500916414546        0.272280603467
        0.821552477952        0.500913996963        0.272280542121
        0.821553634434        0.500912127905        0.272280491159
        0.821554447995        0.500910815702        0.272280450441
        0.821554914113        0.500910067827        0.272280419875
        0.821555029310        0.500909890020        0.272280399395
        0.821554791734        0.500910285355        0.272280388945
        0.821554201749        0.500911253271        0.272280388452
        0.821553262546        0.500912788582        0.272280397817
        0.821551980755        0.500914880490        0.272280416889
        0.821550367035        0.500917511618        0.272280445459
        0.821548436619        0.500920657120        0.272280483251
        0.821546209790        0.500924283905        0.272280529921
        0.821543712230        0.500928350059        0.272280585063
        0.821540975206        0.500932804535        0.272280648227
        0.821538035521        0.500937587215        0.272280718942
        0.821534935169        0.500942629464        0.272280796756
        0.821531720600        0.500947855304        0.272280881286
        0.821528441508        0.500953183366        0.272280972285
        0.821525149021        0.500958529810        0.272281069737
        0.821521893148        0.500963812443        0.272281173974
        0.821518719306        0.500968956330        0.272281285847
        0.821515663702        0.500973901241        0.272281406946
        0.821512747312        0.500978611352        0.272281539904
        0.821509968249        0.500983087572        0.272281688760
        0.821507292494        0.500987382535        0.272281859330
        0.821504643613        0.500991617368        0.272282059361
        0.821501893601        0.500995996983        0.272282298022
        0.821498859779        0.501000816141        0.272282584105
        0.821495316205        0.501006442492        0.272282922772
        0.821491026150        0.501013264387        0.272283313595
        0.821485790926        0.501021607475        0.272283756676
        0.821479499216        0.501031642480        0.272284273511
        0.821472192849        0.501043265774        0.272284928335
        0.821462198147        0.501059523451        0.272285164807
        0.821457813618        0.501066703756        0.272285179240
        0.821455994881        0.501069837320        0.272284899694
        0.821456230855        0.501069636492        0.272284557358
        0.821458088735        0.501066770933        0.272284225614
        0.821461215381        0.501061813875        0.272283914877
        0.821465314284        0.501055254169        0.272283619960
        0.821470131777        0.501047510612        0.272283335348
        0.821475450117        0.501038941710        0.272283058130
        0.821481083832        0.501029851903        0.272282787573
        0.821486877381        0.501020495863        0.272282524256
        0.821492703162        0.501011082128        0.272282269413