# OOMMF OVF 2.0
#
# Segment count: 000001
#
# Begin: Segment
# Begin: Header
#
# Title: SPIRIT Version 2.2.0 (e82250d3b1441)
#
# Desc: 
#
# valuedim: 3   ## field dimensionality
# valueunits: none none none
# valuelabels: spin_x spin_y spin_z
#
## Fundamental mesh measurement unit. Treated as a label:
# meshunit: nm
#
# xmin: 0
# ymin: 0
# zmin: 0
# xmax: 5.10955
# ymax: 5.85
# zmax: 0
#
# meshtype: rectangular
# xbase: 0
# ybase: 0
# zbase: 0
# xstepsize: 0.0866025
# ystepsize: 0.1
# zstepsize: 0.1
# xnodes: 60
# ynodes: 30
# znodes: 1
#
# End: Header
#
# Begin: Data Text
       -0.469320033788       -0.277043256207        0.838442448875
       -0.575370597073       -0.608161400974        0.546889738786
       -0.582475498878       -0.725565763816        0.366437737663
       -0.570065985826       -0.766199104986        0.296586755137
       -0.556061454333       -0.784186734741        0.275403021153
       -0.542140224994       -0.795755381363        0.269921005993
       -0.527928924474       -0.805714446167        0.268542886597
       -0.513260159484       -0.815303930364        0.268036396445
       -0.498353026397       -0.824614475815        0.267684940476
       -0.483693641533       -0.833394703151        0.267383114464
       -0.469895592170       -0.841330319729        0.267135593967
       -0.457585500034       -0.848145714453        0.266953848472
       -0.447316587065       -0.853640580064        0.266843832617
       -0.439507277717       -0.857698456184        0.266808378981
       -0.434401397114       -0.860282841593        0.266849880356
       -0.432045788670       -0.861430422465        0.266972028019
       -0.432280767704       -0.861247675536        0.267181173097
       -0.434739420643       -0.859913912146        0.267487756424
       -0.438852790351       -0.857690822751        0.267907971083
       -0.443858131696       -0.854936399417        0.268465476140
       -0.448805315526       -0.852120245608        0.269193008416
       -0.452550793789       -0.849837163817        0.270138064768
       -0.453716549929       -0.848811636991        0.271403937389
       -0.450563733870       -0.849858067563        0.273374444157
       -0.440657797872       -0.853650437344        0.277671813471
       -0.419998304661       -0.859786138654        0.290463801292
       -0.380622485723       -0.863328362803        0.331346738842
       -0.303135586674       -0.841478796423        0.447238472476
       -0.137936130913       -0.709420373867        0.691155812340
        0.170611734064       -0.299059042951        0.938858522371
        0.469284029764        0.277109417607        0.838440737370
        0.575291520623        0.608239248745        0.546886352531
        0.582385578243        0.725639257066        0.366435133222
        0.569977675901        0.766265440848        0.296585102688
        0.555978841789        0.784245734063        0.275401808429
        0.542064790498        0.795807154605        0.269919868817
        0.527861306128        0.805759152638        0.268541671688
        0.513200678119        0.815341806493        0.268035077114
        0.498301850681        0.824645854111        0.267683546200
        0.483650849197        0.833419994500        0.267381691294
        0.469861203398        0.841349972410        0.267134186257
        0.457559503926        0.848160166113        0.266952492003
        0.447298965486        0.853650213771        0.266842552836
        0.439498026220        0.857703566345        0.266807191109
        0.434400541587        0.860283611854        0.266848789849
        0.432053396546        0.861426915810        0.266971030735
        0.432296953159        0.861239836322        0.267180254926
        0.434764343886        0.859901580256        0.267486892311
        0.438886651733        0.857673760861        0.267907123575
        0.443901161840        0.854914335080        0.268464593925
        0.448857762846        0.852092930305        0.269192025991
        0.452612910165        0.849804451407        0.270136905884
        0.453788572808        0.848773585340        0.271402527654
        0.450645854648        0.849815072466        0.273372742420
        0.440750079518        0.853603424975        0.277669876429
        0.420100427614        0.859736888418        0.290461896661
        0.380732928819        0.863280140374        0.331345493631
        0.303248853301        0.841437791813        0.447238834943
        0.138034178569        0.709399299627        0.691157868534
       -0.170569047135        0.299079853090        0.938859649594
       -0.801512740657       -0.213275233416        0.558651055110
       -0.778209965122       -0.488403835442        0.394779614102
       -0.721571157039       -0.619767813299        0.308582116994
       -0.672632099965       -0.685981854486        0.277479645040
       -0.634017390947       -0.725132418106        0.268709739661
       -0.602005756540       -0.752603654510        0.266789820480
       -0.573695883459       -0.774494161869        0.266517966623
       -0.547588522384       -0.793169298869        0.266513176946
       -0.523167214979       -0.809486752680        0.266509403974
       -0.500479420306       -0.823710338381        0.266498833572
       -0.479835419130       -0.835900515732        0.266511347501
       -0.461604720663       -0.846085533120        0.266571477296
       -0.446083117579       -0.854332050396        0.266695706522
       -0.433411581643       -0.860767539881        0.266896315418
       -0.423532185164       -0.865582168351        0.267185325125
       -0.416167623146       -0.869026181403        0.267578036245
       -0.410812504460       -0.871411085832        0.268096634943
       -0.406726663126       -0.873117267195        0.268774364902
       -0.402921815909       -0.874606910259        0.269660458338
       -0.398131143702       -0.876438951140        0.270825326252
       -0.390745149683       -0.879281183503        0.272365248033
       -0.378684094618       -0.883909651083        0.274412254108
       -0.359152105612       -0.891163658403        0.277195055830
       -0.328168604821       -0.901744965707        0.281356328580
       -0.279678484068       -0.915502442948        0.289197549274
       -0.203884815677       -0.929160804635        0.308368579895
       -0.084252079291       -0.929568788627        0.358891981445
        0.106021171429       -0.875139719931        0.472112255515
        0.387322343510       -0.669554892170        0.633780441943
        0.677204379109       -0.244967940919        0.693819095181
        0.801486506441        0.213384639776        0.558646914876
        0.778149299874        0.488505261298        0.394773703266
        0.721499204840        0.619854163585        0.308576916346
        0.672559434185        0.686054757422        0.277475543621
        0.633948267713        0.725194098663        0.268706369720
        0.601942057578        0.752655663063        0.266786829094
        0.573638601176        0.774537557767        0.266515153132
        0.547538267184        0.793204906042        0.266510455705
        0.523124395071        0.809515298527        0.266506751758
        0.500444318895        0.823732499177        0.266496254168
        0.479808240737        0.835916911934        0.266508852506
        0.461585627574        0.846096705866        0.266569076864
        0.446072261327        0.854338437208        0.266693405211
        0.433409129560        0.860769458276        0.266894110300
        0.423538341143        0.865579810722        0.267183204660
        0.416182642060        0.869019622205        0.267575979247
        0.410836700336        0.871400301844        0.268094609426
        0.406760411622        0.873102172582        0.268772327014
        0.402965551621        0.874587409771        0.269658352135
        0.398185351987        0.876415016732        0.270823086000
        0.390810350263        0.879252962344        0.272362806449
        0.378760808462        0.883877617003        0.274409562760
        0.359240783402        0.891128825604        0.277192127809
        0.328269464732        0.901709193489        0.281353316848
        0.279791136260        0.915468866943        0.289194871548
        0.204007402655        0.929134397072        0.308367073210
        0.084379405355        0.929556878790        0.358892915849
       -0.105901210483        0.875152002735        0.472116411202
       -0.387232340019        0.669602374038        0.633785275567
       -0.677169973120        0.245056088125        0.693821548510
       -0.906471734383       -0.165924689294        0.388301419321
       -0.855533400448       -0.406168414845        0.321076033830
       -0.787311291453       -0.546465001910        0.285511702103
       -0.727496072085       -0.629990741852        0.271774042691
       -0.678049695441       -0.684648633085        0.267403926163
       -0.635847682177       -0.724447255868        0.266221521548
       -0.598205743334       -0.755916359624        0.265970573361
       -0.563664943460       -0.782012066544        0.265967966669
       -0.531697582895       -0.804063604443        0.266043981991
       -0.502305304576       -0.822703599142        0.266173193528
       -0.475700843403       -0.838307233199        0.266363830788
       -0.452089190573       -0.851189907124        0.266629154028
       -0.431532951417       -0.861684178133        0.266982563094
       -0.413880959391       -0.870160224019        0.267439219241
       -0.398737304490       -0.877025738082        0.268019433530
       -0.385449311608       -0.882723517121        0.268752712550
       -0.373097185237       -0.887733020142        0.269682360044
       -0.360472237741       -0.892574340989        0.270870470198
       -0.346032285863       -0.897807747905        0.272402101574
       -0.327821197732       -0.904016640363        0.274385087541
       -0.303335710722       -0.911752206150        0.276939273456
       -0.269319816969       -0.921395313448        0.280174075433
       -0.221473988336       -0.932834944088        0.284197536195
       -0.154106302238       -0.944733367827        0.289361558132
       -0.059876368322       -0.952905110556        0.297298958613
        0.069955906613       -0.947042687074        0.313394830827
        0.243935262368       -0.905024804761        0.348461892523
        0.463846000027       -0.786552160282        0.407654985759
        0.700290190696       -0.544495311993        0.461647597235
        0.869935741369       -0.186825827527        0.456407620507
        0.906451535913        0.166046034301        0.388296700390
        0.855484247957        0.406277185825        0.321069384675
        0.787250609330        0.546555693352        0.285505432828
        0.727433441987        0.630065310633        0.271768820535
        0.677989550614        0.684709891570        0.267399576746
        0.635792163588        0.724497372812        0.266217733270
        0.598156041678        0.755956904593        0.265967118648
        0.563621822856        0.782044250300        0.265964718287
        0.531661584298        0.804088434220        0.266040879822
        0.502276837801        0.822721943346        0.266170212733
        0.475680242413        0.838319834793        0.266360961049
        0.452076755811        0.851197377891        0.266626387904
        0.431528985095        0.861686992703        0.266979889934
        0.413885794153        0.870158722637        0.267436622056
        0.398751324793        0.877020141771        0.268016887349
        0.385472967382        0.882713957150        0.268750183759
        0.373130997400        0.887719584375        0.269679806988
        0.360516794151        0.892557141598        0.270867846224
        0.346088223591        0.897787017394        0.272399362866
        0.327889161902        0.903992865289        0.274382209724
        0.303416269600        0.911726309063        0.276936282753
        0.269413294479        0.921368889804        0.280171100686
        0.221580146748        0.932810541876        0.284194883016
        0.154223777134        0.944714740145        0.289359786978
        0.060001775085        0.952897240232        0.297298901014
       -0.069829044142        0.947051206495        0.313397378532
       -0.243816908004        0.905054650931        0.348467206778
       -0.463747832764        0.786606939214        0.407660975305
       -0.700222925838        0.544579064491        0.461650838458
       -0.869910665704        0.186937607122        0.456409645755
       -0.936497954646       -0.137527905300        0.322579689702
       -0.886837415339       -0.354525350476        0.296363247762
       -0.820496551107       -0.498522460619        0.279751257154
       -0.757650805192       -0.593486172779        0.271550032429
       -0.702065570269       -0.659773731841        0.267959992938
       -0.652423604159       -0.709452891725        0.266495844544
       -0.607052814750       -0.748833218989        0.265961821024
       -0.565028087728       -0.781067524930        0.265851051491
       -0.526097666912       -0.807765550143        0.265962517795
       -0.490361739003       -0.829862566605        0.266220745755
       -0.457979026199       -0.848044496540        0.266600344054
       -0.428968195558       -0.862928398147        0.267097111311
       -0.403102713049       -0.875119950120        0.267718650142
       -0.379871722980       -0.885220012197        0.268482781733
       -0.358473438887       -0.893817792897        0.269418905635
       -0.337813826456       -0.901484086528        0.270570250381
       -0.316493703443       -0.908762959331        0.271995623915
       -0.292775793899       -0.916151310612        0.273768352026
       -0.264529513650       -0.924048753666        0.275967456878
       -0.229159372892       -0.932651677915        0.278651806917
       -0.183540188411       -0.941753165255        0.281804852637
       -0.124019241264       -0.950395746346        0.285249282426
       -0.046609975109       -0.956316098982        0.288594922077
        0.052428411726       -0.955148091501        0.291450484551
        0.175483133420       -0.939462486320        0.294305804703
        0.322248006827       -0.897882196565        0.299939632572
        0.488811893180       -0.814422230539        0.312696919541
        0.665066747867       -0.668699771044        0.332455767114
        0.825894506789       -0.442671200028        0.349199759910
        0.925946133878       -0.149956794933        0.346607439057
        0.936481530575        0.137649898741        0.322575337353
        0.886795756469        0.354634873961        0.296356866766
        0.820443440160        0.498613448909        0.279744866023
        0.757595112661        0.593559801410        0.271544485164
        0.702011881817        0.659832761855        0.267955302562
        0.652374271923        0.709499784473        0.266491773166
        0.607009176897        0.748869897036        0.265958147980
        0.564991014732        0.781095505639        0.265847633697
        0.526067792678        0.807786073730        0.265959276196
        0.490339569207        0.829876662820        0.266217639115
        0.457965002423        0.848053011488        0.266597348565
        0.428962742041        0.862932007695        0.267094208166
        0.403106272900        0.875119176450        0.267715819030
        0.379884784243        0.885215251381        0.268479998180
        0.358496549341        0.893809357202        0.269416141106
        0.337847595106        0.901472264587        0.270567475248
        0.316538784482        0.908748098645        0.271992814479
        0.292832844379        0.916133928058        0.273765503879
        0.264599108487        0.924029678730        0.275964607539
        0.229241849794        0.932632226600        0.278649069997
        0.183635383600        0.941735323078        0.281802461233
        0.124126076405        0.950382296001        0.285247626815
        0.046725899989        0.956310556305        0.288594542861
       -0.052307964051        0.955154246473        0.291451955460
       -0.175364816293        0.939483439583        0.294309442518
       -0.322139429474        0.897919351811        0.299945037668
       -0.488719146412        0.814475739841        0.312702518604
       -0.664992890018        0.668771482142        0.332459262014
       -0.825843430590        0.442765725173        0.349200717016
       -0.925926813126        0.150072656935        0.346608906946
       -0.945637111518       -0.120463343719        0.302091105695
       -0.901221158547       -0.322250073532        0.289750433124
       -0.838171483741       -0.468519057502        0.279210416354
       -0.773476551783       -0.572295860928        0.272417825053
       -0.712450801099       -0.648253677097        0.268665267840
       -0.655577119679       -0.706415605911        0.266825096045
       -0.602389651262       -0.752549769179        0.266074337282
       -0.552690740743       -0.789817992586        0.265933231628
       -0.506616261796       -0.820063620594        0.266149622323
       -0.464378454671       -0.844557773043        0.266598609954
       -0.426018659738       -0.864349529767        0.267222738455
       -0.391268442376       -0.880388623550        0.268001637169
       -0.359511140922       -0.893545828855        0.268937894856
       -0.329797463273       -0.904602834660        0.270050633667
       -0.300872540096       -0.914239036307        0.271371883415
       -0.271192381081       -0.923015210101        0.272942511098
       -0.238926203858       -0.931341409424        0.274804381700
       -0.201954952823       -0.939411573462        0.276983921332
       -0.157890638807       -0.947086344782        0.279460196994
       -0.104160854869       -0.953710770069        0.282110409889
       -0.038226905187       -0.957873537163        0.284634837155
        0.041986091694       -0.957160262260        0.286498517369
        0.137426431220       -0.948019592096        0.287006670661
        0.247209176959       -0.925879766052        0.285717135718
        0.368418072183       -0.885456486247        0.283257718434
        0.497053536434       -0.820646441379        0.281917009366
        0.629398697736       -0.722992310032        0.284849783084
        0.760255902819       -0.579416304039        0.293747695894
        0.874381126608       -0.377410546514        0.304990040513
        0.942314481505       -0.128004260736        0.309286804082
        0.945623286715        0.120581447119        0.302087262614
        0.901184872497        0.322356783797        0.289744593604
        0.838124012264        0.468607637334        0.279204266261
        0.773426186008        0.572366561539        0.272412286856
        0.712402266036        0.648308992335        0.268660495428
        0.655532978926        0.706458140949        0.266820929889
        0.602351393776        0.752581719334        0.266070581125
        0.552659340197        0.789841139677        0.265929742162
        0.506592435210        0.820079413640        0.266146312980
        0.464362789482        0.844567389642        0.266595431502
        0.426011687979        0.864353917468        0.267219660696
        0.391270689886        0.880388537821        0.267998637514
        0.359523158398        0.893541878938        0.268934953398
        0.329819838972        0.904595542499        0.270047733394
        0.300905891219        0.914228911336        0.271369015008
        0.271237317660        0.923002842402        0.272939682762
        0.238983253996        0.931327582390        0.274801634982
        0.202024432099        0.939397391330        0.276981353160
        0.157972442604        0.947073356182        0.279457985012
        0.104254158898        0.953701042168        0.282108830986
        0.038329794050        0.957869597775        0.284634257506
       -0.041876961555        0.957164802169        0.286499322127
       -0.137315887538        0.948034871340        0.287009110925
       -0.247102958777        0.925906889262        0.285721123092
       -0.368321457775        0.885495094989        0.283262670491
       -0.496969658141        0.820695577343        0.281921847713
       -0.629327921565        0.723052575524        0.284853190551
       -0.760198021988        0.579491630707        0.293748901795
       -0.874340002861        0.377505850855        0.304989986668
       -0.942298715172        0.128117323176        0.309288025775
       -0.948863442580       -0.110168528748        0.295839589320
       -0.908437591329       -0.303086164290        0.287888727943
       -0.846903913036       -0.452450652321        0.279360285831
       -0.779038369670       -0.564446554696        0.272945609004
       -0.711361555319       -0.649306696524        0.269008459836
       -0.646060975304       -0.715071565179        0.266979161848
       -0.584001234487       -0.766864625171        0.266197679890
       -0.525841500071       -0.807861776420        0.266176758944
       -0.472125904618       -0.840246828658        0.266612822496
       -0.423081158770       -0.865756418288        0.267335290015
       -0.378471938144       -0.885887316807        0.268258558034
       -0.337592495631       -0.901932790048        0.269348378738
       -0.299340970230       -0.914970180828        0.270600354283
       -0.262306828769       -0.925849507836        0.272025396647
       -0.224840010795       -0.935184215039        0.273637448985
       -0.185104244223       -0.943328918251        0.275439595487
       -0.141135558442       -0.950330139563        0.277404722350
       -0.090938097668       -0.955844731937        0.279447867805
       -0.032655820297       -0.959037395559        0.281390958135
        0.035147016737       -0.958496517785        0.282929518801
        0.113101168796       -0.952241009735        0.283628603980
        0.200640483410       -0.937898776282        0.283000497997
        0.295838995916       -0.913055330761        0.280729854958
        0.395803307727       -0.875545419966        0.277055877342
        0.497781414379       -0.823169369264        0.273140720152
        0.600500421527       -0.752262666920        0.271109062378
        0.704154379173       -0.655261241105        0.273494636504
        0.806513213978       -0.519929011919        0.281443170540
        0.895276461615       -0.336520667116        0.291948450729
        0.947605080021       -0.114700824211        0.298141465153
        0.948851524837        0.110280230619        0.295836195468
        0.908405416026        0.303187610877        0.287883436038
        0.846860953864        0.452534646445        0.279354467633
        0.778992447599        0.564512552556        0.272940185007
        0.711317535437        0.649356898906        0.269003683289
        0.646021643825        0.715108673109        0.266974945180
        0.583968240698        0.766891076832        0.266193858177
        0.525815915622        0.807879602175        0.266173197877
        0.472108508581        0.840257677345        0.266609436797
        0.423072586230        0.865761613769        0.267332031199
        0.378472763999        0.885887920406        0.268255399553
        0.337603279434        0.901929670832        0.269345307344
        0.299362268650        0.914964095614        0.270597368513
        0.262339175523        0.925841190628        0.272022511426
        0.224883859646        0.935174474474        0.273634705334
        0.185159866854        0.943318738242        0.275437074097
        0.141202887677        0.950320769670        0.277402558109
        0.091016512933        0.955837738786        0.279446258671
        0.032743894822        0.959034627755        0.281390156401
       -0.035051739993        0.958499926979        0.282929789001
       -0.113002237734        0.952252298177        0.283630137474
       -0.200542253945        0.937918939453        0.283003299271
       -0.295745894921        0.913084322828        0.280733654988
       -0.395718783148        0.875582275610        0.277060143833
       -0.497707041891        0.823212995142        0.273144769456
       -0.600435770273        0.752313141614        0.271112195838
       -0.704098108818        0.655321009510        0.273496302817
       -0.806465559028        0.520002834341        0.281443341330
       -0.895242018151        0.336612507577        0.291948195199
       -0.947591742012        0.114807941365        0.298142628737
       -0.950338688679       -0.104503417542        0.293147424553
       -0.911713548883       -0.294195556876        0.286753167547
       -0.848888371114       -0.448882862116        0.279092653945
       -0.775168013364       -0.569778037677        0.272887410551
       -0.698313672791       -0.663348441800        0.268936533692
       -0.622396948573       -0.735768601590        0.266958055359
       -0.549863763338       -0.791643352081        0.266365622546
       -0.482334496139       -0.834421866245        0.266633799368
       -0.420643177242       -0.866923924301        0.267399003205
       -0.364773360029       -0.891558381680        0.268447476930
       -0.313962644665       -0.910332591902        0.269670224304
       -0.266924442525       -0.924823966317        0.271020245199
       -0.222059281012       -0.936186143523        0.272479688035
       -0.177607730919       -0.945177469212        0.274034752563
       -0.131760997763       -0.952183219857        0.275655863880
       -0.082763963936       -0.957217874533        0.277279762963
       -0.029044349030       -0.959912095199        0.278792387413
        0.030609903869       -0.959507136860        0.280016228280
        0.096828400841       -0.954895439136        0.280711526498
        0.169439634082       -0.944749169117        0.280605092354
        0.247362027622       -0.927746790419        0.279460051095
        0.328747512440       -0.902823665980        0.277190369984
        0.411481259832       -0.869255540153        0.274003610778
        0.493991130925       -0.826309112522        0.270529135456
        0.576074395590       -0.772253423834        0.267886058096
        0.659132152640       -0.702790659090        0.267637992170
        0.744769683578       -0.609666508014        0.271339026733
        0.830686464487       -0.481654038284        0.279229986075
        0.905423275226       -0.311321815608        0.288595599075
        0.949713096657       -0.106881582798        0.294315071474
        0.950328221682        0.104607024546        0.293144403820
        0.911684624446        0.294289870925        0.286748352078
        0.848849167704        0.448960416443        0.279087145807
        0.775126025566        0.569837698990        0.272882101466
        0.698273937787        0.663392207839        0.268931750422
        0.622362481371        0.735799309393        0.266953775171
        0.549836352579        0.791663704968        0.266361715753
        0.482315261027        0.834434151162        0.266630148998
        0.420632886147        0.866929987216        0.267395535409
        0.364772605834        0.891559690261        0.268444155709
        0.313971933381        0.910330331278        0.269667041005
        0.266944219633        0.924819146490        0.271017213272
        0.222089907367        0.936179706243        0.272476844273
        0.177649413516        0.945170386505        0.274032162987
        0.131813677102        0.952176575158        0.275653630939
        0.082827162311        0.957212910357        0.277278029112
        0.029116996702        0.959910202000        0.278791328055
       -0.030529622297        0.959509753661        0.280016025956
       -0.096743103831        0.954903850816        0.280712321707
       -0.169352606512        0.944764230992        0.280606918138
       -0.247276820674        0.927768683412        0.279462777551
       -0.328667319567        0.902851841140        0.277193697618
       -0.411408264339        0.869288979688        0.274007134629
       -0.493926106959        0.826346897865        0.270532447690
       -0.576016766907        0.772295454412        0.267888811517
       -0.659080563493        0.702838317152        0.267639890091
       -0.744723124779        0.609723013804        0.271339849371
       -0.830646034242        0.481723827208        0.279229869637
       -0.905393763403        0.311407771224        0.288595449048
       -0.949701555793        0.106980871937        0.294316238024
       -0.951148271139       -0.102628532980        0.291177524077
       -0.911879371974       -0.294891393098        0.285508453894
       -0.844072771596       -0.458329550109        0.278343636083
       -0.760400110749       -0.589592985318        0.272344971013
       -0.670520981515       -0.691573130718        0.268566971569
       -0.581070685082       -0.768851146694        0.266879697928
       -0.496486338209       -0.826064426337        0.266681232021
       -0.419272769797       -0.867597643474        0.267366178762
       -0.350108571323       -0.897401434432        0.268504476250
       -0.288250526179       -0.918746862274        0.269844097988
       -0.232129717591       -0.934095333308        0.271259474493
       -0.179835006870       -0.945143776370        0.272695090335